64
Lattice = "10.8618 0.0 0.0                         0.0 10.8618 0.0                         0.0 0.0 10.8618" Properties=species:S:1:pos:R:3:forces:R:3 energy=-334.49091481 stress = "39.5672169 1.55011067 8.87519257                             1.55011067 36.49632178 -4.87777239                             8.87519271 -4.87777218 33.91279373"
Si 10.861430916036001 0.042457581402000004 0.13054308639 -1.12808055 -1.52370868 -2.42014807
Si 5.390573395140001 10.830495857928 10.81842285861 0.8169717 0.24508756 1.03788047
Si 0.013504910412 5.40758840484 0.113454868158 0.81059842 0.65171664 -1.80722138
Si 5.436670548486 5.410888980006 10.775578814364001 -1.2275108 0.83765772 2.0802012
Si 0.02270496363 0.024910452120000003 5.410959255852 0.48634735 -0.06563355 0.01101564
Si 5.496255885072 0.017863750752 5.4411409395120005 -1.01867413 0.29505598 0.03539413
Si 0.028816572636 5.574909437412001 5.462260080342 0.71693388 -3.04432124 0.47698528
Si 5.439897263412 5.498116945884 5.4582848787780005 1.02036562 -1.20950298 -0.88950101
Si 4.060741063068001 1.31037732762 4.064924268102 0.35226833 0.70214936 0.25304627
Si 9.422366783646 1.253507006562 4.1019572493480005 1.51806908 1.62816675 -0.28536226
Si 4.09816528635 6.6806155866540005 4.1616334992 -0.99577944 1.87244678 -1.47507946
Si 9.506875606512 6.730341884616 4.23803051259 -1.42151296 0.60264293 -2.04814598
Si 4.16609498355 1.352345584932 9.551628612108 -1.53009725 0.09302499 -1.41594279
Si 9.506129074998 1.408196743296 9.491086350942 0.42993231 0.10166698 -0.14515185
Si 3.982868256912 6.737012224614 9.59811049041 0.75324736 -0.07677321 -1.9045943
Si 9.575208710964 6.764159012736 9.479282289792 -0.52526559 -0.23627126 0.06983275
Si 0.08698400985 2.848431126018 2.812892076744 -1.5955704 -2.25917775 -1.61863955
Si 5.439112389744001 2.7218183819579997 2.725672691688 -0.06806691 -0.62103006 -0.61731336
Si 0.011178312852000001 8.056069651086 2.8255063195559997 -0.9510708 0.05042649 -1.26235062
Si 5.4332047653419995 8.16266550978 2.6949211980000003 -0.92682833 0.3221725 0.95002039
Si 0.10835818574400001 2.8248374499120006 8.06283796452 -1.06206269 -0.70674034 1.35107926
Si 5.35090175682 2.765451101502 8.11260293049 1.32783942 -0.36276756 -0.04289454
Si 10.831926574224001 8.100418054632 8.050877710686 -0.00638897 0.19052234 0.03569496
Si 5.4545570004 8.143777165434 8.187262273116001 -0.62551559 0.08265647 0.15473715
Si 4.056866441772 4.09548459411 1.386767172222 0.42401282 0.45567331 0.08630146
Si 9.537011127522002 4.21056102039 1.39998228981 -0.38946775 -2.2205449 0.27690607
Si 4.058305630272001 9.561527187684 1.3671179587859998 -0.57619243 -0.38841715 0.14020727
Si 9.445794165594 9.442265601246001 1.297475247108 0.48328715 0.17387559 1.44207116
Si 4.11808256901 4.171942324962001 6.66046010472 -0.68189232 -1.34640415 1.00381824
Si 9.4697734356 3.99932942343 6.766251972978 0.92498014 2.30516148 0.6355637
Si 4.123610573502001 9.432179876856 6.640666755198 0.20860593 1.20931041 2.21997999
Si 9.530517074538 9.547521982764001 6.712075269702001 -1.31375891 -0.83581799 0.47131238
Si 2.638717791462 0.058068486216000005 2.742747767142 0.22740794 -1.05579405 -0.34403417
Si 8.11468187901 0.065108127414 2.7067930367820003 -0.404132 -1.45715446 -0.72194862
Si 2.65546788186 5.479618866012 2.72533315182 1.41402591 -1.02752175 0.40094944
Si 8.13481042368 5.309265544734 2.752178850846 -0.31572001 2.41692096 -0.02355033
Si 2.645203263624 10.823635001958001 8.139693780342 1.26138926 0.19621285 -0.31906175
Si 8.081578805622 10.851965834898001 8.176292398206 1.48148456 0.13781784 -0.23710333
Si 2.71714335462 5.315312743266 8.09497803072 0.19646702 1.09470702 0.70146536
Si 8.08611806046 5.507316130158 8.115861253254002 0.33181774 -1.41186916 0.55236996
Si 1.3715278495860002 1.3089627954060001 1.2544661035020002 0.64290826 2.2038722 1.83217046
Si 6.8499262837499995 1.3667811343679999 1.2187130767680001 -1.0600522 0.07961297 1.26431715
Si 1.401417893916 6.743550267888001 1.375228030374 -0.67560667 1.37182137 -0.08389233
Si 6.669646689306 6.864763611168 1.3120565619 1.31771033 -1.3797038 0.14715897
Si 1.3994852538420002 1.4521949624100001 6.795720905322001 0.10691123 -0.7321433 -0.61582216
Si 6.887710358466001 1.320987568332 6.738352353498 -1.21174761 0.91874977 1.05373091
Si 1.42241842389 6.762177385944001 6.796736809476001 -0.11959666 0.34123873 0.62340446
Si 6.72429218787 6.789123773856001 6.731582953884001 -0.1132905 0.15134211 2.00423374
Si 2.8059860356860002 2.7341448956880003 0.006228807828 -0.27323796 -0.81698273 0.09137368
Si 8.117220607524 2.797320600264 10.840234113336 1.9162019 -0.46302391 0.59911626
Si 2.705714460042 8.14966502136 10.82213162022 -0.51289308 0.50602364 0.74389668
Si 8.119325624364 8.090684687034 10.798279324656 0.36541781 0.0474802 0.23668422
Si 2.710384708188 2.79390749685 5.365770474840001 1.67815383 -1.64209517 1.23707809
Si 8.224808039940001 2.691959619612 5.480180855544 -1.07535217 -0.32915474 -1.41276492
Si 2.7163407762180003 8.153713322838 5.494205937558 0.02236234 -0.92092451 -1.32415315
Si 7.966921101732 8.028428651064 5.402936513136001 2.04424041 1.90880281 -0.21764761
Si 1.4867315761620001 3.9990413684940003 4.058403929562 -1.46872142 2.89261688 0.19401805
Si 6.776850048474 4.06746983955 4.06643090838 -0.0171969 -0.63967362 1.1143365
Si 1.341808878606 9.415609223394 4.073092124466 0.35362646 1.03350014 0.42199293
Si 6.731032912332 9.538638876870001 4.137755895642 0.67425996 -0.49103749 -1.57066908
Si 1.4298852596820002 4.047719611374 9.554166254442 -0.64234816 0.21679135 -0.07704608
Si 6.746180235522 4.068734587542 9.667501642800001 0.25052062 0.19631989 -3.27836529
Si 1.2857124607980002 9.419406834528 9.407534669892001 -0.0644617 0.85778478 1.16252591
Si 6.824463074628 9.572455787754 9.587143656804 -0.49686821 -1.14115946 -0.94182065
64
Lattice = "10.8618 0.0 0.0                         0.0 10.8618 0.0                         0.0 0.0 10.8618" Properties=species:S:1:pos:R:3:forces:R:3 energy=-327.73581735 stress = "46.83164317 2.1558486 12.51066378                             2.15584895 44.01653357 -9.08935627                             12.510664 -9.08935607 37.82090051"
Si 10.82391838632 0.044696198382 0.20447599183200002 -1.44188511 -1.3804049 -2.92147965
Si 5.369026733862 10.803063947556002 10.802564847846 0.80231853 0.50247566 1.49743415
Si 0.055190326452 5.402422967232001 0.184852955334 1.00292477 0.83832968 -2.72471449
Si 5.4032449882560005 5.41625340579 10.743616121358 -1.5438603 1.2473921 2.84274333
Si 0.064590562644 0.05218714737 5.388834312342 0.52868521 -0.13021214 0.18770307
Si 5.538243259152001 0.049671337254 5.454614676558001 -1.47687069 0.63699789 0.08489937
Si 0.083580573438 5.644747227018 5.5139865787739994 0.43584373 -3.6950404 0.44301013
Si 5.483434616352 5.536034403504 5.45989123038 1.33111453 -1.81296582 -1.59542125
Si 4.058070255066 1.277095251768 4.063151079252 0.49183512 0.74742067 0.17802027
Si 9.37719505566 1.183227250314 4.125515624604001 1.94974113 1.647975 -0.57817396
Si 4.0942410266280005 6.616045118340001 4.215675081684 -1.4508956 2.52576183 -2.09857843
Si 9.464157233292001 6.681713606016 4.362142978908 -1.72996758 0.62061031 -2.7082468
Si 4.224384941868 1.348341708216 9.560424280512 -1.97827321 0.03743735 -2.01032329
Si 9.522418733694 1.468230129132 9.471994347846001 0.5226848 -0.26172565 -0.03784413
Si 3.902192563266 6.675038269590001 9.645397010856001 0.80746279 0.14272343 -2.49990883
Si 9.639810678498002 6.727555289826001 9.453175627638 -0.94523012 -0.40232979 0.12023883
Si 0.134393485872 2.9306872115640004 2.8736746009260004 -2.33690936 -2.73946217 -2.13443864
Si 5.446120857576001 2.7101623671420003 2.7184234177500004 -0.16004919 -0.63063629 -0.67918461
Si 10.854856920204 7.954431009294001 2.9121204851160005 -1.27076022 0.31291744 -1.66903113
Si 5.40570388254 8.192210800578 2.701524737928 -1.25324204 0.34732845 1.05678329
Si 0.198593675424 2.929136798232 8.010708167454 -1.57267448 -0.92394765 1.9391431
Si 5.301344685702 2.811879756984 8.073148419552 1.80151004 -0.50897543 0.15722588
Si 10.796204286384 8.054088567384 7.942465433178 -0.21049808 0.3829853 0.2938539
Si 5.460817090212 8.144068153056 8.239533599436001 -1.0384071 0.2179162 0.12737109
Si 4.052251480188 4.13401139871 1.4222423541120002 0.68357986 0.16815741 -0.04252285
Si 9.562484763972 4.2973164979680005 1.4567142315360002 -0.42328962 -2.96860494 0.1689765
Si 4.023088959222 9.614801709852 1.3817394622380001 -0.67300216 -0.63407851 0.05680809
Si 9.394691568954 9.37560108651 1.2735498516300001 0.72626019 0.19735498 1.76850627
Si 4.14705261888 4.2409428870240005 6.545677164276 -1.08363888 -2.13290088 1.75205629
Si 9.460744998822001 3.987646254114 6.760776322362 1.27753717 2.8930436 0.80646906
Si 4.189863534636 9.386975020380001 6.540883960554001 0.37860484 1.36095162 2.97686326
Si 9.519545787594 9.57082945044 6.638357753754 -1.4852531 -0.98826936 0.61812734
Si 2.557752304992 0.091602664446 2.7639530420460003 0.51174517 -1.36974699 -0.27870511
Si 8.064870641772 0.094772572158 2.674110640908 -0.4466271 -1.71143618 -0.81953064
Si 2.6320982846880003 5.5049774760000005 2.7497902324080004 2.025257 -0.87185646 0.3499637
Si 8.110379085558 5.247073158912 2.7945751716960006 -0.58845341 3.16705318 0.12230387
Si 2.603596161162 10.787256009690001 8.122675512102001 1.4287989 0.49722975 -0.27933982
Si 8.054450699796002 10.84612968114 8.203037082492001 2.02066526 0.40703615 -0.37394082
Si 2.725206720468 5.217333550512 8.058833436096 0.27771729 1.52702563 1.03152702
Si 8.027619012492 5.550894540702 8.099234987376 0.7082048 -1.79344516 0.88116934
Si 1.408054670952 1.320643792362 1.192501055154 0.56382462 2.18247621 2.03699209
Si 6.887555034726001 1.37851502829 1.098182940708 -1.20607404 -0.05391531 1.74001991
Si 1.4303002890600003 6.735947768214 1.391638689522 -0.8219551 1.92239808 -0.20425098
Si 6.575089398024 6.908326163484001 1.26350051427 1.75033178 -1.6157323 0.20316142
Si 1.4516626255920002 1.5349521027900002 6.783390046872 0.16236739 -1.51717279 -0.82088598
Si 6.963225067842 1.306609151964 6.713719746222001 -1.68009905 0.93365421 1.41195961
Si 1.494314633214 6.74143699608 6.825794948544 -0.02294239 0.27382635 0.81577633
Si 6.648308683206 6.794934402384 6.731914673256001 0.43515849 0.49339177 3.12147446
Si 2.900785219254 2.731583791866 0.016876195896 -0.56495673 -0.70903853 0.19491525
Si 8.145328121856 2.8774454920320003 10.835189458944 2.45850707 -0.61152903 0.81715756
Si 2.677866868584 8.170661858322001 10.800116163654002 -0.65056198 0.73476458 0.89608303
Si 8.099849656638 8.02845547971 10.733365297608 0.530724 0.15382876 0.55304647
Si 2.758966063812 2.831876330784 5.331951826068001 2.1816222 -2.1764096 1.70717405
Si 8.279874541872001 2.65662357738 5.491740308958 -1.44171479 0.11541697 -1.73602059
Si 2.717626487484 8.134072472988 5.524700115204 0.11343692 -0.79960979 -1.71080369
Si 7.8255203428260005 7.955091841206001 5.3627348189760005 2.77079931 2.73936518 -0.46017297
Si 1.588451246982 4.004701995564 4.046830029954 -2.09708944 3.1997049 0.23216117
Si 6.763118560914 4.03938719874 4.0943410638060005 0.11607018 -1.01047458 1.32862562
Si 1.334431109574 9.346528175394 4.0861872191640005 0.34494585 1.41288776 0.42910194
Si 6.68687274378 9.561525558414 4.161119627442001 1.01925197 -0.79470831 -2.24677868
Si 1.49256772992 4.0251303259140006 9.609701443044 -0.90492857 0.27368641 -0.11425191
Si 6.70563867564 4.068088093206 9.750152772012001 0.36312742 -0.01404019 -4.35468045
Si 1.201905527448 9.348798400212 9.333292311768 0.32523077 1.18103435 1.49342014
Si 6.85105482477 9.613312231218002 9.652396028922 -0.40648315 -1.76190505 -1.36365714
64
Lattice = "10.8618 0.0 0.0                         0.0 10.8618 0.0                         0.0 0.0 10.8618" Properties=species:S:1:pos:R:3:forces:R:3 energy=-329.46692593 stress = "31.75839967 1.1353541 5.5123492                             1.13535441 33.38351021 -6.19478927                             5.51234922 -6.19478905 26.26219987"
Si 10.73066929023 10.859285819154 0.1842106971 0.35596992 0.01005934 -1.98728004
Si 5.373403822026001 10.789938331200002 10.837179123468 0.35013498 0.83171451 0.65152085
Si 0.139234264278 5.425367216316 0.171386821548 -0.09240312 0.06434175 -1.69743929
Si 5.3099397366600005 5.463480294954 10.808222868084 -0.05360721 -0.35293701 1.38306778
Si 0.133345865262 0.078828101466 5.370506979966001 -0.08052454 -0.48589854 0.62958722
Si 5.535838130778 0.108314738544 5.472390120876001 -0.58808026 -0.09500119 -0.31726504
Si 0.16305571233000002 5.59157969358 5.588998821282001 -0.73971765 -2.1982881 -0.75673331
Si 5.5815857514000005 5.5166887773780005 5.404565674518 0.01186123 -0.70166591 -0.94973783
Si 4.072604429646001 1.265148357948 4.066513240824 0.27260813 0.34529109 -0.4592134
Si 9.395986729986001 1.161452165382 4.129104906414001 1.49828708 0.97732865 -1.60114273
Si 4.041030154608 6.632407985568 4.20445451643 0.33498799 1.86203211 -1.2135612
Si 9.35428969182 6.644626207152 4.410943091184 0.2672466 -0.32882257 -1.69950643
Si 4.221049608942001 1.3431722517420002 9.49643426679 -1.34830262 -0.5412289 -1.5959148
Si 9.562039973262 1.5304783446060002 9.447564638994 0.50314141 -0.56015653 0.05979316
Si 3.835699990824 6.60998206158 9.609433808292 0.39820911 1.33842527 -1.70733369
Si 9.681283746348 6.669710991162001 9.425700813156 -1.12193089 -0.17071366 -0.11163997
Si 0.108031788654 2.9265356143680004 2.868383926764 -0.93640511 -2.01982701 -1.14229947
Si 5.449371902934 2.6726778608700004 2.6842970541840003 0.04178166 -0.29573371 -0.41688392
Si 10.786284638916001 7.847038546188001 2.953269219618 -0.85514752 1.16426585 -1.30687628
Si 5.3267621666460006 8.238160559298 2.7459995728260003 -0.94852769 -0.41612843 -0.08295393
Si 0.24780327756 3.016113747912 8.019760174338 -1.37391107 -1.60450638 1.47191191
Si 5.309910735654 2.8472636997540004 8.031399136128 1.63995085 -0.77501769 0.16717811
Si 10.74691039668 8.01268957701 7.8249601998000005 -0.06575771 0.37335563 0.81473845
Si 5.429123878464001 8.152681017366001 8.306832117438 -1.21958874 0.32696219 0.12377702
Si 4.071826181676 4.185683045052 1.463554667322 0.55710758 -0.56546758 -0.04699121
Si 9.578053525002 4.29330729897 1.529323843884 -0.0059744 -1.50847707 -0.37947063
Si 3.9558024978180004 9.654649526568 1.401729844812 -0.46835142 -0.65131969 -0.01100814
Si 9.360054809406 9.303278334300002 1.311393231774 0.51879915 0.15809261 1.37465315
Si 4.144892098242001 4.246831503276 6.474883319034001 0.03727979 -1.13556328 2.12126677
Si 9.495077410734 4.079205579978 6.781975188804 0.39798647 1.46227887 0.02969778
Si 4.278974393544 9.383067379212001 6.533083884738001 -0.78689454 0.69266401 2.54700994
Si 9.451419274578 9.56269450533 6.57309321642 -0.82413893 -0.46197207 0.37961602
Si 2.4810953687280004 0.08088717289200001 2.7789834922680003 0.94466025 -0.93578087 -0.05233346
Si 7.991078070786 0.066408719346 2.6060434333200004 0.43116176 -1.23600785 -0.1067173
Si 2.67840474492 5.504622403758 2.7866578970580003 1.39240825 0.33741877 -1.4054846
Si 8.05943007477 5.289450145758 2.847986443926 -0.6743616 2.04777288 -0.30363655
Si 2.607605142924 10.761759780696 8.091582740658001 1.05458283 0.42258037 -0.23123776
Si 8.097105205632 10.853531128896002 8.221191495012 1.58264346 0.3470793 -0.30662735
Si 2.7451480077059998 5.156669745804 8.054404537146 0.26235033 1.12794294 1.01693832
Si 7.9846309407780005 5.534822552478 8.11242208152 0.99907275 -1.65656311 0.90157857
Si 1.46704412919 1.4135257596119999 1.195076170698 -1.43618746 0.33620307 1.42097406
Si 6.888057827448001 1.3925602046340002 1.020253544574 -0.62390851 0.45276547 1.80824851
Si 1.4346882390240001 6.7970897093580005 1.4061047606160002 -0.43093201 1.22595127 0.44379621
Si 6.52804878873 6.901890655602 1.216871784432 1.59940909 -0.53754068 1.29279131
Si 1.518861540888 1.578680406174 6.740328332154 -0.28181366 -1.3811806 -0.04009897
Si 6.990019173318001 1.3258062972840001 6.7378655276220005 -1.63156552 0.90660658 1.40283016
Si 1.5765499727220003 6.728797336656 6.890255169588 -0.66107518 0.52087274 0.419147
Si 6.574028634636 6.82061897499 6.8428593794340005 1.09701694 0.729587 1.26587246
Si 2.9933767419720003 2.702375759958 0.036397240092 -0.54486174 -0.09258846 0.11256153
Si 8.266404606456002 2.950147755534 10.857844566912002 0.61972556 -0.51609016 0.08733421
Si 2.621416247478 8.22123396465 10.805972954832 -0.23341194 0.12061435 0.26133729
Si 8.097462993324001 7.960017124416001 10.677122136882002 0.77736385 0.26892193 0.95244268
Si 2.891910694182 2.7988972991520003 5.3487693682440005 -0.03416607 -0.99292724 -0.3443849
Si 8.294316173916 2.620196141484 5.444330507082 -0.48680097 1.06210973 -0.2129643
Si 2.7255014011020005 8.081852414364 5.4993633374340005 0.84307998 0.14998198 -0.70312471
Si 7.758137428638 7.967595185040001 5.30335096878 1.8436958 1.92670879 1.03260847
Si 1.6297132700580002 4.123446451704 4.047891010578001 -2.57376274 -0.10458909 1.75910354
Si 6.75239981082 3.9684557344920006 4.173847810536 0.6386587 -0.95320402 -0.16247473
Si 1.3366697265540002 9.316000977876001 4.116718435548 -0.3332761 0.89325992 -0.10257325
Si 6.670265594670001 9.562706996400001 4.106655738174 0.37198331 0.17040931 -1.54187703
Si 1.5342872520120001 4.008069696654 9.671311527768001 -0.58333275 0.13743832 -0.25014353
Si 6.67078478871 4.069661099082 9.690058668714 0.38322283 0.46101495 -2.42179359
Si 1.1132541226800001 9.310358707248 9.300602204016 0.39759821 1.46379221 1.1870213
Si 6.86674741032 9.597125107914 9.678727747572001 -0.35674818 -1.43311987 -1.43563318
64
Lattice = "10.8618 0.0 0.0                         0.0 10.8618 0.0                         0.0 0.0 10.8618" Properties=species:S:1:pos:R:3:forces:R:3 energy=-328.88452725 stress = "18.89635836 -0.31966389 0.03344645                             -0.31966393 25.69679075 3.52042068                             0.03344639 3.52042066 21.33493501"
Si 10.613796648084001 10.790262012840001 0.075265431066 1.43979944 0.48150972 -0.69433628
Si 5.39397694017 10.803935607006 0.04821661638 -0.16769711 0.62421601 -0.83129905
Si 0.252250858806 5.462135061024001 0.085757060922 -0.98492055 -0.08810849 0.31753281
Si 5.177167591674 5.519176889904 0.087136726758 1.12171476 -0.76889052 -1.70737364
Si 0.222594234558 0.09674855081400001 5.369941731894 -1.17402995 -0.53248666 0.80452155
Si 5.508941598528001 0.183700952826 5.485115371284 0.77369341 -1.17086666 -0.3666532
Si 0.24694997455200002 5.431781760924 5.664263709258001 -0.58772415 0.69370604 -1.08109518
Si 5.714478027894001 5.464511731481999 5.296349018028001 -1.94102881 1.64198888 1.4282619
Si 4.103713276554 1.2617449215360002 4.05126403395 0.03562106 -0.58141662 -1.63837836
Si 9.482435687568001 1.1727636439020002 4.072104678228 0.6838197 0.31894097 -1.87249279
Si 3.9829716612480004 6.729281990172001 4.138453114584 2.92131474 0.30901418 -0.34386741
Si 9.211628529642 6.584855351022 4.407500009202 1.7904891 -0.24158259 -0.21439822
Si 4.162369603386001 1.315781181738 9.346946897784001 -0.13674226 -0.77168747 -0.10153535
Si 9.635853724758 1.592840826216 9.416784361536001 0.26363554 -0.74869249 0.2318403
Si 3.7651098043320004 6.573903289464001 9.494774909604 0.85876957 2.38848607 0.6395887
Si 9.69328321128 6.584079058176 9.384082957512001 -0.89575453 0.14829471 -0.27264102
Si 0.033538414332 2.839089652164 2.8148222186040006 0.92756393 -0.86270314 0.4206167
Si 5.45544549564 2.609874824652 2.621927295168 0.32880766 0.22556841 0.2510378
Si 10.658664680142 7.747454088012001 2.9564003507040004 -0.0157375 1.9487236 -0.50473693
Si 5.181401629932 8.285985390552 2.8042310946600004 -0.18050008 -0.69386317 -1.34296807
Si 0.259375873752 3.0706037055 8.09049753822 -0.83025754 -1.99683379 0.33626047
Si 5.38581212511 2.8643245462499998 7.980978443292 0.5429771 -1.03081892 0.0434329
Si 10.677648173856001 7.97133816132 7.698561433200001 0.27457495 0.34320365 1.53515839
Si 5.337031129602001 8.177600376162001 8.403986899572 -1.10694695 0.38657256 0.25579652
Si 4.120496929914 4.230581707386 1.5185007118920002 0.17149656 -2.24037357 0.11249189
Si 9.596480894556 4.228230779394 1.613897185842 -0.20700983 1.17677544 -0.74542824
Si 3.8463137073120004 9.682371012528 1.4275700670120002 0.21171163 -0.58242134 -0.42291077
Si 9.333720483924 9.212620972308 1.416908993076 0.12622065 0.43089232 0.02923461
Si 4.144296002658 4.20950308107 6.463513838502 1.6875959 0.5486008 1.85917144
Si 9.558807284346 4.260918932022 6.815519251272001 -0.74876675 -1.25248175 -0.08793759
Si 4.369215857214001 9.407687060946001 6.624648424266 -2.04986177 0.26750334 1.28773011
Si 9.325902268902 9.532667710938 6.500477086992 0.39465922 0.25871602 0.29980948
Si 2.4134632848480004 0.02976024582 2.79637421163 0.97814216 0.1454618 -0.00764736
Si 7.907799238152001 10.839878280768001 2.507265463794 1.58400901 -0.29229524 0.31233287
Si 2.79381299919 5.512668173490001 2.7853792459620004 -0.94580961 0.54298863 -1.9026881
Si 7.963331711304001 5.4270876168180004 2.90697177468 -0.66495808 -0.66642773 -1.36037993
Si 2.655177002856 10.74345362883 8.039937054018 0.29370516 0.05418489 -0.21651314
Si 8.217198914568 0.015344139006 8.233233864054 0.25755643 0.0107022 -0.30522869
Si 2.78174010849 5.118369518352 8.08800421203 -0.14950921 -0.03521714 0.40777431
Si 7.965567721452001 5.449177802568 8.164235800206 1.09816748 -0.14856753 0.0247584
Si 1.495217683266 1.55690923149 1.25800878819 -2.23626621 -1.17835117 0.89472829
Si 6.863541115578 1.429775772738 0.98706281646 0.28439266 1.03288565 1.51093113
Si 1.421607264666 6.927955391208 1.4416486977 -0.33520018 -0.40557126 0.67246507
Si 6.529393153716001 6.8703206166660005 1.204153159722 1.30314055 0.69234944 2.18428261
Si 1.5993085936440001 1.583100072594 6.67952527917 -0.88448336 -0.76990153 0.91228202
Si 6.962370026946 1.388671462998 6.825420433680001 -0.70752705 0.69290118 0.50752431
Si 1.6609813509540001 6.732758092026001 6.992513911542001 -1.55028971 0.7879005 -0.78532237
Si 6.517134634854001 6.880240915842 7.043289242148001 1.67823208 -0.38302576 -1.94249444
Si 3.0977410438560002 2.658039195774 0.067162745502 -0.39708854 0.39881361 -0.16077392
Si 8.456593203804001 3.0259671384 0.029448729396 -1.86023203 -0.9433249 -1.17879662
Si 2.53461786579 8.29673379336 10.823667804594 0.23508823 -0.2903764 -0.72556568
Si 8.125171770978001 7.877822625276 10.638697324584 0.85555665 0.36146891 1.27085876
Si 3.073831615224 2.7123117001260004 5.364078315018 -2.33669044 0.3968475 -1.3305513
Si 8.29407265236 2.608384259838 5.370149300892001 0.9676863 0.60180492 1.62696833
Si 2.7662991908460004 8.016701056986001 5.437879249590001 0.48664485 1.33793483 1.24996914
Si 7.7428711687380005 8.06434992708 5.262178121082001 0.85738654 0.82531667 2.22833069
Si 1.58467633701 4.287203727696 4.112099563716001 -1.77757209 -2.76640661 1.09212236
Si 6.761622565200001 3.8341846611060006 4.274238540126 0.52715546 -0.40586998 -2.48387469
Si 1.327453815108 9.30973295895 4.155204725634 -0.8368056 -0.21640867 -0.50728469
Si 6.662220042174001 9.56929196265 3.971491607592 -0.77292976 0.84570653 0.17491726
Si 1.568123714136 3.989848918536 9.744587185692001 0.15116192 -0.2634768 -0.40935571
Si 6.639906103344001 4.088064246822 9.511915916184 0.5219355 0.41770919 1.18102319
Si 1.008149046036 9.316715358462 9.303951548664 0.22825486 1.38008065 0.41422631
Si 6.873132736686001 9.518422786092001 9.657827906484002 -0.39620796 -0.29701119 -0.83910519
64
Lattice = "10.8618 0.0 0.0                         0.0 10.8618 0.0                         0.0 0.0 10.8618" Properties=species:S:1:pos:R:3:forces:R:3 energy=-318.89304905 stress = "25.1649331 1.29010273 -12.2633627                             1.29010274 34.33125381 14.65260445                             -12.26336246 14.6526045 33.53447936"
Si 10.506071813898 10.713263364348 10.762935461928 0.75331252 0.48006825 1.22187331
Si 5.416299785676 10.845905167734001 0.11720881485600002 -0.5774007 -0.14964861 -1.79326698
Si 0.369013145064 5.510500918536 10.840250840508 -1.36988013 0.50021371 1.77294388
Si 5.04049758114 5.570668882074 0.21694783644600002 1.83326555 0.84461445 -3.39406731
Si 0.299276044344 0.101014414146 5.39883216477 -1.98958278 -0.24230666 0.22653113
Si 5.498667639144 0.24238193594400004 5.4895355807940005 1.14040652 -1.4796151 0.18553826
Si 0.33569533389 5.2407316056 5.7294667688039995 -0.66152462 3.69562139 0.89560982
Si 5.827654290882 5.44895937177 5.196878825988 -1.78978469 1.80156002 1.95286073
Si 4.147207508148 1.23575187381 3.9691235179560005 -0.26487152 -1.25200166 -2.01535179
Si 9.625436389614 1.1999121699120001 3.9277765556040003 -1.02099107 -0.97837337 0.20720382
Si 4.007816182242 6.869873219124 4.034768435526 2.40420591 -2.65292792 0.86169624
Si 9.084045718224 6.498020690922001 4.394382973668001 1.85937235 0.96181667 1.58768962
Si 4.076959576974001 1.2524616669300002 9.139567220958 1.43179808 0.35164033 1.86210796
Si 9.745486434114001 1.648402626228 9.385209869262 -0.42506866 -0.88587806 0.75735529
Si 3.70056855426 6.6165189100560005 9.361979303130001 0.68264365 2.46529699 2.87662808
Si 9.676092240420001 6.4739094500459995 9.318502667652 -0.00910531 0.63229399 0.07001802
Si 10.825244503482 2.6863199558160002 2.754577679376 1.5155941 1.02137847 1.00798801
Si 5.476503375918001 2.532369255954 2.5473069464040003 0.51671915 0.59456384 1.17249179
Si 10.485561585576 7.684566655608 2.940519312924 1.19497375 1.38826753 0.61769437
Si 4.9818147515160005 8.329288128612 2.831153369376 2.07139117 0.95879733 -2.71051721
Si 0.243178540356 3.0687497048580004 8.199998602560001 0.31486136 -1.14810913 -1.10618949
Si 5.507022644322 2.8483303285140003 7.916579265564001 -2.07029528 -0.56718768 0.65493816
Si 10.594223358630002 7.928975620668001 7.585709829414001 0.39308874 0.35330697 1.77929639
Si 5.1713064557760005 8.223985367208002 8.543855058498 0.15911223 -0.19915062 -0.13664017
Si 4.193966253732 4.2052164717 1.5961223932320001 -0.15703169 -3.31976818 -0.02182892
Si 9.613203939072001 4.1820348922860004 1.699822387428 -0.58018516 3.01646274 -0.79862162
Si 3.7054723311060003 9.697599473364 1.4445018753240002 1.05792767 -0.29302273 -1.36020329
Si 9.303949810776 9.107462672844 1.560019182066 -0.22409421 0.93029155 -2.06743527
Si 4.202758880832 4.1751564402 6.517789710012001 1.37729816 1.04268436 0.35934182
Si 9.615207941172 4.462908549216 6.860029821492001 -2.0983229 -3.1637979 0.61918274
Si 4.414690520802 9.454197831636 6.797675812086 -2.17051422 0.42409356 -1.00682287
Si 9.171944183016 9.503710043520002 6.417179572062 2.3155641 1.66478493 1.35908562
Si 2.3584577176140002 10.826380647762 2.819528636544 0.31253881 1.21684237 0.02956785
Si 7.854084269994 10.710804904536001 2.3825349610560003 2.08221606 1.53780674 -0.11663755
Si 2.91384729408 5.5444474106940005 2.717860559274 -3.45453167 0.3965558 0.08302301
Si 7.80448299135 5.591737515534 2.93518747254 -0.86437252 -2.73627504 -1.9714876
Si 2.729535690858 10.720463868804 7.961686691694 -1.19886228 -0.51590495 -0.13753098
Si 8.390685756528 0.047149553148000005 8.23661861817 -1.28482307 -0.48138106 -0.55327759
Si 2.8249763723340005 5.066343994566 8.148692238552 -0.77614586 -1.10968648 -0.70961054
Si 7.983339364140001 5.329058568402 8.234311245996 1.2853284 2.2374157 -1.56347465
Si 1.454487019446 1.7085449559180002 1.3766391954300001 -0.07369527 -1.95652377 -0.47975
Si 6.840658018428001 1.5172950520920003 0.9997012810860001 1.28830636 0.55560085 0.34194237
Si 1.3904734356180002 7.09189405926 1.5142554859800001 -0.22182397 -1.79200539 0.1938571
Si 6.58072526019 6.849977334210001 1.26747919161 0.21780928 0.82334551 1.31335504
Si 1.6757882653320002 1.5576706436700003 6.63016328598 -1.08537789 -0.20948998 1.17701906
Si 6.900973376592 1.4967434403120001 6.961703981370001 2.03920816 -1.37024361 -1.65791572
Si 1.719786049974 6.767952061914 7.103919592512001 -1.04561507 0.51186268 -1.32013418
Si 6.504923038968 6.948943321494001 7.249832125902 1.74935154 -0.91922089 -2.69261993
Si 3.2211140388300006 2.609708421876 0.10334742016800001 -0.87167273 -0.10053633 -0.263976
Si 8.64883967778 3.0914004681060003 0.031981701156000006 -2.74127474 -1.42151462 -1.54850225
Si 2.425471765074 8.38811791839 10.822366886808 0.54059831 -0.54849412 -0.98359351
Si 8.19378673914 7.780899416718001 10.63473244173 0.2205026 0.58268815 1.1454357
Si 3.2360046976860004 2.6089847001420003 5.339550958584 -2.6028657 1.61730064 -0.16337642
Si 8.331384564630001 2.612748639696 5.329025331294001 2.55411424 -0.93826189 2.40762385
Si 2.838165312984 7.9790127833460005 5.400343801476 -0.78207825 2.0130635 2.6910388
Si 7.755965937582 8.22588281505 5.284861035258 -0.64634335 -1.1610972 0.61004756
Si 1.4630650173780002 4.407354678318001 4.23133584216 2.12379377 -3.54873604 -3.38546902
Si 6.78768436812 3.639966010104 4.3190462891940005 -1.63077048 1.31838653 -3.10798483
Si 1.284770525502 9.294922786032002 4.189043577354 -0.55120993 -1.04057109 -0.37039208
Si 6.623196961932 9.605654770836 3.7945223639340004 -1.43860452 -0.12320715 2.1924321
Si 1.618293282156 3.9553108927500005 9.827595016416 0.67435112 -0.70930853 -0.53766297
Si 6.614172435402001 4.127562313578 9.312158833362 -0.55353365 -0.35789941 4.34234767
Si 0.8771902785600001 9.377661244116002 9.323221359426 0.8240173 0.44407656 -1.1412674
Si 6.868432944444001 9.39965725806 9.598144922316001 0.20507519 0.94964319 0.53402816
64
Lattice = "10.8618 0.0 0.0                         0.0 10.8618 0.0                         0.0 0.0 10.8618" Properties=species:S:1:pos:R:3:forces:R:3 energy=-307.01984976 stress = "45.34551626 5.40399792 -24.34258427                             5.40399802 48.47095774 7.75450053                             -24.34258411 7.75450068 44.54792259"
Si 10.399548620646001 10.639568006472 10.592615812230001 -1.06847447 1.08094221 2.57056058
Si 5.423997651954 0.0323518713 0.13760521151400001 -0.5304924 -0.30363972 -1.85562337
Si 0.461838630954 5.585929385220001 10.76996293791 -1.26277973 0.45279721 1.80350092
Si 4.937685973566 5.65668043497 0.26044641276 1.49669985 0.50395132 -1.70294828
Si 0.321518186676 0.096310385802 5.441806767852 -2.06171488 -0.20992317 -0.6562649
Si 5.5246117001520005 0.261928613988 5.500912664586 0.42227673 -0.92073232 0.51634278